[Molden Format]

[FREQ]
        -908.6689440351
        1663.6481776600
        1663.6481777178
        3804.3257138510
        4036.9454846973
        4036.9454847022

[FR-COORD]
N          0.0000000000        0.0000000000       -0.0000000000
H          0.0000000000        0.0000000000       -1.8755126826
H          1.6242416282        0.0000000000        0.9377563413
H         -1.6242416282       -0.0000000000        0.9377563413

[FR-NORM-COORD]
vibration 1
           0.0000000000       -0.1237012007        0.0000000000
          -0.0000000000        0.5729159371       -0.0000000000
          -0.0000000000        0.5729159371        0.0000000000
          -0.0000000000        0.5729159371       -0.0000000000
vibration 2
           0.0032778856       -0.0000000000       -0.0801329830
          -0.0331471162       -0.0000000000       -0.0680687068
          -0.3865573794        0.0000000000        0.6062910183
           0.3741604054        0.0000000000        0.5751734216
vibration 3
          -0.0801329830       -0.0000000000       -0.0032778856
           0.8103325289        0.0000000000       -0.0027843894
           0.1359728038        0.0000000000       -0.3561946526
           0.1670904005        0.0000000000        0.4045231322
vibration 4
           0.0000000000        0.0000000000        0.0000000000
          -0.0000000000        0.0000000000        0.5773502691
          -0.5000000001        0.0000000000       -0.2886751347
           0.5000000000        0.0000000000       -0.2886751346
vibration 5
          -0.0542508033       -0.0000000000       -0.0675242502
          -0.0069017860        0.0000000000        0.6340608226
           0.6586168812        0.0000000000        0.3756469481
           0.1020645678        0.0000000000       -0.0715021873
vibration 6
          -0.0675242502        0.0000000000        0.0542508033
          -0.0085904336       -0.0000000000       -0.5094215614
           0.2498234407       -0.0000000000        0.1560971059
           0.6969725762       -0.0000000000       -0.4004552076
